     103
 i =        0, time =        0.000, E =        -1.0709718781
  N        -8.6690000000       -0.0560000000        1.2910000000
  H        -9.3840000000        0.0250000000        2.0390000000
  H        -9.1000000000        0.0320000000        0.3540000000
  H        -7.9700000000        0.7060000000        1.4120000000
  C        -7.9210000000       -1.3230000000        1.3980000000
  H        -7.5370000000       -1.3690000000        2.4110000000
  C        -8.7260000000       -2.5980000000        1.0770000000
  H        -9.5710000000       -2.7190000000        1.7880000000
  H        -9.1220000000       -2.6280000000        0.0430000000
  H        -8.0680000000       -3.4890000000        1.2110000000
  C        -6.7970000000       -1.1540000000        0.4470000000
  O        -5.6610000000       -1.1120000000        0.8930000000
  N        -7.0750000000       -0.9700000000       -0.8730000000
  H        -8.0070000000       -0.9990000000       -1.2140000000
  C        -6.0900000000       -1.0270000000       -1.9430000000
  H        -5.7270000000       -2.0470000000       -1.9760000000
  C        -6.6420000000       -0.6270000000       -3.3280000000
  H        -7.4620000000       -1.3030000000       -3.6400000000
  H        -7.0120000000        0.4190000000       -3.3350000000
  H        -5.8370000000       -0.6990000000       -4.0930000000
  C        -4.9320000000       -0.1110000000       -1.7340000000
  O        -3.8110000000       -0.4400000000       -2.1040000000
  N        -5.1910000000        1.0660000000       -1.1320000000
  H        -6.1050000000        1.2810000000       -0.8220000000
  C        -4.2200000000        2.1260000000       -1.0010000000
  H        -3.7860000000        2.3150000000       -1.9760000000
  C        -4.7970000000        3.4280000000       -0.4050000000
  H        -5.5730000000        3.8530000000       -1.0720000000
  H        -5.2270000000        3.2600000000        0.6040000000
  H        -3.9880000000        4.1900000000       -0.3110000000
  C        -3.1490000000        1.7400000000       -0.0420000000
  O        -2.0550000000        2.2900000000       -0.0840000000
  N        -3.4630000000        0.8110000000        0.8860000000
  H        -4.2990000000        0.2640000000        0.8270000000
  C        -2.6000000000        0.5210000000        2.0040000000
  H        -2.2340000000        1.4530000000        2.4130000000
  C        -3.2540000000       -0.3330000000        3.1100000000
  H        -4.0740000000        0.2270000000        3.6030000000
  H        -3.6640000000       -1.2790000000        2.6940000000
  H        -2.5010000000       -0.5990000000        3.8840000000
  C        -1.4570000000       -0.2760000000        1.4970000000
  O        -0.3460000000       -0.1520000000        2.0020000000
  N        -1.7280000000       -1.1010000000        0.4650000000
  H        -2.6230000000       -1.0830000000        0.0290000000
  C        -0.8310000000       -2.1260000000       -0.0060000000
  H        -0.5140000000       -2.7150000000        0.8440000000
  C        -1.4420000000       -3.0270000000       -1.0950000000
  H        -2.2950000000       -3.6080000000       -0.6870000000
  H        -1.8010000000       -2.4300000000       -1.9590000000
  H        -0.6850000000       -3.7510000000       -1.4700000000
  C         0.3520000000       -1.4880000000       -0.6310000000
  O         1.4590000000       -2.0150000000       -0.5780000000
  N         0.1290000000       -0.3060000000       -1.2390000000
  H        -0.7650000000        0.1270000000       -1.1660000000
  C         1.0980000000        0.3460000000       -2.0800000000
  H         1.4790000000       -0.3850000000       -2.7830000000
  C         0.5550000000        1.5870000000       -2.8180000000
  H        -0.2520000000        1.2970000000       -3.5220000000
  H         0.1500000000        2.3320000000       -2.0990000000
  H         1.3650000000        2.0750000000       -3.4020000000
  C         2.2180000000        0.8680000000       -1.2470000000
  O         3.3170000000        1.0680000000       -1.7380000000
  N         1.9250000000        1.1270000000        0.0470000000
  H         1.0490000000        0.8560000000        0.4370000000
  C         2.8320000000        1.8420000000        0.9120000000
  H         3.2550000000        2.6700000000        0.3600000000
  C         2.1900000000        2.3320000000        2.2260000000
  H         1.4030000000        3.0820000000        2.0150000000
  H         1.7380000000        1.4820000000        2.7830000000
  H         2.9580000000        2.8030000000        2.8780000000
  C         3.9030000000        0.9220000000        1.3510000000
  O         4.9650000000        1.3920000000        1.7880000000
  N         3.6380000000       -0.3940000000        1.2960000000
  H         2.7870000000       -0.7250000000        0.8770000000
  C         4.4800000000       -1.3970000000        1.8800000000
  H         4.8870000000       -1.0210000000        2.8120000000
  C         3.7950000000       -2.7620000000        2.0960000000
  H         2.9750000000       -2.6740000000        2.8360000000
  H         3.3710000000       -3.1460000000        1.1430000000
  H         4.5260000000       -3.5100000000        2.4720000000
  C         5.5930000000       -1.7060000000        0.9430000000
  O         6.5540000000       -2.3340000000        1.3140000000
  N         5.4150000000       -1.3090000000       -0.3390000000
  H         4.6410000000       -0.7590000000       -0.6150000000
  C         6.3280000000       -1.7330000000       -1.3750000000
  H         6.7110000000       -2.7150000000       -1.1350000000
  C         5.6950000000       -1.7380000000       -2.7860000000
  H         4.8580000000       -2.4650000000       -2.8340000000
  H         5.3040000000       -0.7300000000       -3.0410000000
  H         6.4510000000       -2.0250000000       -3.5500000000
  C         7.4390000000       -0.7540000000       -1.4510000000
  O         8.3560000000       -0.9710000000       -2.2780000000
  C         9.1980000000        1.3660000000        0.4270000000
  O         8.8710000000        0.6640000000        1.3780000000
  O        10.2310000000        2.1430000000        0.4540000000
  N         7.3810000000        0.3480000000       -0.7080000000
  H         6.7390000000        0.4090000000        0.0550000000
  C         8.2990000000        1.4530000000       -0.7990000000
  H         8.8490000000        1.3770000000       -1.7260000000
  C         7.6360000000        2.8330000000       -0.6530000000
  H         6.8770000000        3.0010000000       -1.4390000000
  H         7.1400000000        2.9050000000        0.3380000000
  H         8.4070000000        3.6290000000       -0.7120000000
     103
 i =       10, time =        5.000, E =        -1.0110782821
  N        -8.6468978790       -0.0647759072        1.2873846530
  H        -9.4241775539       -0.0150880095        1.9755025049
  H        -8.9823548521       -0.0543847710        0.3068737293
  H        -7.8650381278        0.6215385988        1.4334769046
  C        -7.9073534531       -1.3402397223        1.4319498001
  H        -7.5427449166       -1.4177374020        2.4522296857
  C        -8.7643987876       -2.6113553665        1.0546601252
  H        -9.6576135495       -2.6589279294        1.7174145950
  H        -9.1255641324       -2.4762801023        0.0028929043
  H        -8.0634868743       -3.4521181383        1.1602835724
  C        -6.7777420679       -1.1587450977        0.4716050533
  O        -5.6572285222       -1.1035315973        0.8696728037
  N        -7.0866597318       -0.9728210539       -0.8533645005
  H        -8.0130090107       -0.8655061391       -1.2180422846
  C        -6.0532939860       -1.0213148777       -1.9329212703
  H        -5.7329130738       -2.0734187477       -1.9031600961
  C        -6.6494403510       -0.6108613966       -3.3133916164
  H        -7.4294371600       -1.3150326026       -3.6635015829
  H        -7.0404107459        0.4401205094       -3.3015001222
  H        -5.7642826414       -0.7028211395       -3.9879677728
  C        -4.9469206008       -0.1097743262       -1.7454795450
  O        -3.7867217762       -0.4362732434       -2.1139506918
  N        -5.2480132929        1.0666588748       -1.1288141126
  H        -6.1673274875        1.3406420813       -0.8852145552
  C        -4.1933189377        2.1441843433       -0.9719173812
  H        -3.7296658369        2.2175336982       -1.9474520800
  C        -4.7914629949        3.4373478242       -0.4050901585
  H        -5.6516292870        3.8201911300       -1.0130738161
  H        -5.3013644824        3.2620513456        0.5698189405
  H        -4.0325022206        4.2520873499       -0.2483596792
  C        -3.1537501940        1.7593699540       -0.0182220033
  O        -2.0192891360        2.3118331317       -0.0598639448
  N        -3.4478800678        0.7959059347        0.8691543426
  H        -4.2649725968        0.2438683750        0.7614679547
  C        -2.6291043961        0.5010453751        2.0036033173
  H        -2.3550535761        1.4897137273        2.3767715047
  C        -3.2697630031       -0.2973663103        3.1149130112
  H        -4.0834078022        0.2381037074        3.6289097827
  H        -3.7439147181       -1.2322699995        2.7246508267
  H        -2.4562197711       -0.5948296737        3.8125536382
  C        -1.4674574046       -0.2959996019        1.4849041534
  O        -0.3586847614       -0.1623132781        1.9915324708
  N        -1.7314485226       -1.1176590951        0.4577596993
  H        -2.6424565673       -1.1912838991        0.0699973367
  C        -0.8345566932       -2.1328591640       -0.0330466792
  H        -0.4570967438       -2.7383408257        0.7569107884
  C        -1.4345513723       -3.0023595176       -1.0951363366
  H        -2.3349236367       -3.5755561756       -0.7405127218
  H        -1.7580415416       -2.4275700153       -1.9802003764
  H        -0.6616728746       -3.7324508048       -1.4557437688
  C         0.3726494842       -1.5009800260       -0.6089854677
  O         1.4732599594       -1.9739072925       -0.5576331796
  N         0.1234679129       -0.3045800392       -1.2351204867
  H        -0.7997064154        0.0712894194       -1.2943165911
  C         1.0886007421        0.3234479091       -2.0871416904
  H         1.5416127961       -0.3750026942       -2.7929133524
  C         0.5945143340        1.5756537290       -2.7861515654
  H        -0.2452029233        1.2864052997       -3.4421939692
  H         0.1683440952        2.3182822198       -2.0906277257
  H         1.3666386362        2.1377790440       -3.3472032206
  C         2.2245206873        0.8436198599       -1.2419229117
  O         3.3145193955        1.0721815796       -1.7484422697
  N         1.9453913825        1.1097930871        0.0593266024
  H         1.0001102568        0.9360368172        0.3441884343
  C         2.8338714823        1.8261331615        0.9424319957
  H         3.2103482804        2.7162498311        0.4516756432
  C         2.2275336585        2.3575918443        2.2625953342
  H         1.4400160402        3.1041454097        2.0320462276
  H         1.7685155016        1.4433602212        2.6735592165
  H         2.9587892847        2.8263974163        2.9853591806
  C         3.9127306999        0.9100684574        1.3428251474
  O         4.9704761987        1.3522189070        1.7973682851
  N         3.6170566926       -0.3729503894        1.2750676139
  H         2.7935483231       -0.7251573151        0.8605022333
  C         4.4631837051       -1.4319084016        1.8753592780
  H         4.7983873524       -1.1457847740        2.8802608069
  C         3.7825650241       -2.7584619829        2.0612043493
  H         2.9506114779       -2.6804479841        2.7729487875
  H         3.3786596113       -3.0334671880        1.0638708192
  H         4.4861038183       -3.4520175764        2.5961690529
  C         5.5493536961       -1.6953626055        0.9206654790
  O         6.5482176789       -2.3704784771        1.3108942393
  N         5.4004801258       -1.2839083490       -0.3255130906
  H         4.5944640789       -0.7783993208       -0.6384800557
  C         6.3152834269       -1.7118306590       -1.3539777825
  H         6.7326904976       -2.6656472518       -1.1218124190
  C         5.7189200044       -1.7448560727       -2.7776528595
  H         4.9056649190       -2.4515596300       -2.9073310683
  H         5.3120538441       -0.7337521900       -3.0420081542
  H         6.4115841079       -2.0177435401       -3.6031344935
  C         7.4553315303       -0.7538614809       -1.4655540014
  O         8.3408613049       -0.9682884018       -2.3149191868
  C         9.2045841650        1.3949553731        0.4028781245
  O         8.8453684865        0.6656752749        1.4044851080
  O        10.2286199740        2.1422592799        0.4447616050
  N         7.3959823538        0.3629303569       -0.7376939380
  H         6.7723636663        0.4661038349        0.0250999636
  C         8.2978327733        1.4627491680       -0.8022745523
  H         8.8739411998        1.3247017024       -1.7066298602
  C         7.6166925779        2.8145293091       -0.6649319285
  H         6.9213999777        2.9513605258       -1.5095567749
  H         7.1303997357        2.8376008798        0.3349611484
  H         8.4201767593        3.5918359491       -0.7150310590
     103
 i =       20, time =       10.000, E =        -1.0177798654
  N        -8.6135960108       -0.0857683051        1.2837760863
  H        -9.4248212699        0.0067694669        1.9298643462
  H        -8.8870602560       -0.0514575470        0.2795356917
  H        -7.8531025221        0.5998834902        1.4779037071
  C        -7.9034644138       -1.3668644718        1.4619305159
  H        -7.5462554461       -1.4439507027        2.4738730851
  C        -8.7926855842       -2.5928629928        1.0270425851
  H        -9.6969385263       -2.6872278200        1.6664145379
  H        -9.1094894421       -2.4322420128       -0.0158690179
  H        -8.1300182751       -3.5298343819        1.0994266154
  C        -6.7709273061       -1.1622028704        0.4773846897
  O        -5.6353596504       -1.0965442617        0.8581233803
  N        -7.0803618799       -0.9678778783       -0.8387065643
  H        -7.9841185160       -0.8144421453       -1.2128628239
  C        -6.0647307606       -1.0315112035       -1.9112418412
  H        -5.6754646813       -2.0133003409       -1.9134351803
  C        -6.6419684717       -0.6005765835       -3.2899163912
  H        -7.3987081774       -1.3229230399       -3.6741775739
  H        -7.0376333694        0.4179116818       -3.3004143671
  H        -5.7719068441       -0.6627047130       -4.0111138848
  C        -4.9254960612       -0.1049984528       -1.7502944156
  O        -3.7859266616       -0.4247066545       -2.1146300201
  N        -5.2711834194        1.0852051174       -1.1276458566
  H        -6.2107250763        1.3623660129       -0.9555616734
  C        -4.2015091757        2.1344427709       -0.9553149402
  H        -3.6864816614        2.2300988012       -1.9122542040
  C        -4.7992551156        3.4544246274       -0.3996539510
  H        -5.6172283965        3.7973404503       -1.0297310503
  H        -5.2801644557        3.2404133055        0.5703355266
  H        -4.0850048486        4.2632470386       -0.2340467091
  C        -3.1180276894        1.7860714301        0.0043502600
  O        -2.0093404114        2.3247904422       -0.0339212994
  N        -3.4421098517        0.7787159572        0.8508251391
  H        -4.2521434144        0.2061651161        0.7102352406
  C        -2.6517524399        0.4967734400        1.9899012028
  H        -2.3585159117        1.4488104644        2.3795042127
  C        -3.2912649353       -0.2789708201        3.1195056568
  H        -4.0540705006        0.3133203229        3.6918348102
  H        -3.7655221018       -1.1893154390        2.7490819844
  H        -2.4623102556       -0.5834728472        3.8282489897
  C        -1.4783074416       -0.3028885129        1.4802605647
  O        -0.3727613936       -0.1751002000        1.9804483144
  N        -1.7375007573       -1.1442572343        0.4516137893
  H        -2.6617448034       -1.2248040690        0.1001841205
  C        -0.8207645697       -2.1349101149       -0.0468973313
  H        -0.4759956992       -2.7822318645        0.7826028765
  C        -1.4323189855       -2.9925683063       -1.1120393527
  H        -2.3082498133       -3.5247470180       -0.7743183367
  H        -1.7095837867       -2.3830523744       -2.0200421498
  H        -0.6712687329       -3.7254931785       -1.4288810608
  C         0.3653987013       -1.4764685173       -0.6054184628
  O         1.4996486776       -1.9458461227       -0.5330564736
  N         0.1179090851       -0.3185703767       -1.2343859396
  H        -0.8094475968        0.0124877486       -1.3579311947
  C         1.1092312024        0.3072050498       -2.0826532336
  H         1.5041421371       -0.3938235890       -2.7821072249
  C         0.6184475764        1.5735352504       -2.7572182185
  H        -0.2209483303        1.2963926733       -3.4457372662
  H         0.1946579783        2.2997594607       -2.0093926569
  H         1.4101518683        2.1248982804       -3.3345274580
  C         2.2259794602        0.8261044700       -1.2345924354
  O         3.3124995770        1.0735292484       -1.7587714162
  N         1.9549168061        1.0961795815        0.0607229777
  H         1.0129570030        0.9929607501        0.3460793553
  C         2.8411938088        1.8272404873        0.9713561004
  H         3.2217154558        2.6957840813        0.4690328913
  C         2.2575925144        2.3722880280        2.2911692291
  H         1.4724466692        3.1222562572        2.0652657588
  H         1.7512361191        1.4491385943        2.7375882715
  H         2.9599971686        2.7714005638        3.0056862603
  C         3.9310233389        0.9152978357        1.3461768913
  O         4.9691004710        1.3096124427        1.8034121766
  N         3.6068526338       -0.3846015242        1.2656583041
  H         2.7598638096       -0.6737732032        0.7989640936
  C         4.4361238260       -1.4335804128        1.8689838959
  H         4.7714648674       -1.1897600720        2.8410070787
  C         3.7617414885       -2.7562234553        2.0337416770
  H         2.8596141920       -2.6429266059        2.7055962452
  H         3.4138746637       -3.1084048744        1.0169130544
  H         4.4442229249       -3.4623670507        2.5510264993
  C         5.5465274996       -1.7090980808        0.9277794841
  O         6.5189684469       -2.3947248245        1.2982688533
  N         5.3839255325       -1.2617596519       -0.3271470482
  H         4.5990557098       -0.7381136035       -0.6173313091
  C         6.3121820786       -1.6892737503       -1.3401352961
  H         6.7364376173       -2.6792548359       -1.0731146277
  C         5.7350265382       -1.7423086410       -2.7814141819
  H         4.8837719412       -2.4969686338       -2.8832990022
  H         5.3404529995       -0.7528068809       -3.0239088016
  H         6.4764658076       -1.9951608137       -3.5608514339
  C         7.4570459373       -0.7528566378       -1.4959652065
  O         8.3166916059       -0.9655333243       -2.3444413237
  C         9.2123713256        1.4137363945        0.4108239839
  O         8.8211462197        0.6768045657        1.4099646965
  O        10.2174754552        2.1366714107        0.4301164754
  N         7.4045915841        0.3798333541       -0.7526018241
  H         6.8107653354        0.4757014103        0.0471182201
  C         8.3078850191        1.4579414074       -0.8133382460
  H         8.9234884097        1.3609859551       -1.6945244398
  C         7.6073604745        2.7989558817       -0.6799219282
  H         6.9106969370        2.9374176580       -1.5525514190
  H         7.0650006117        2.8396118843        0.3055571503
  H         8.3881946967        3.5820917378       -0.7001565867
     103
 i =       30, time =       15.000, E =        -1.0098911774
  N        -8.5725538580       -0.1130031956        1.2841968972
  H        -9.3946449060        0.0512679285        1.8858609585
  H        -8.8038122127        0.0284057379        0.2916500671
  H        -7.8849108965        0.6366697449        1.5311075746
  C        -7.9074062218       -1.4007363495        1.4747456795
  H        -7.5414496810       -1.4602625337        2.5068858314
  C        -8.7997399427       -2.5658904553        1.0007457978
  H        -9.6969211703       -2.7454061839        1.6293511431
  H        -9.1229733296       -2.4696044927       -0.0673879012
  H        -8.3246628489       -3.5261179558        1.0239584946
  C        -6.7816077011       -1.1671876640        0.4765329431
  O        -5.6026762416       -1.0927205712        0.8580620472
  N        -7.0587781556       -0.9562133180       -0.8286072825
  H        -7.9808807373       -0.8611599884       -1.1986505551
  C        -6.0958920634       -1.0357693364       -1.8914147103
  H        -5.6155635731       -2.0465957396       -1.9635814205
  C        -6.6189822111       -0.6059548589       -3.2691941172
  H        -7.3755781089       -1.3097636314       -3.6456112021
  H        -7.0501591795        0.4407840891       -3.2965797854
  H        -5.8630287984       -0.5891399992       -4.0654809635
  C        -4.9097855255       -0.0860242206       -1.7344613346
  O        -3.7957934552       -0.4078007866       -2.1091216496
  N        -5.2502934821        1.1077768575       -1.1370986663
  H        -6.2019018702        1.3514479941       -1.0097987906
  C        -4.2256523836        2.1203926519       -0.9474201414
  H        -3.7321706612        2.3222313643       -1.8803986652
  C        -4.8149956542        3.4597711422       -0.3900467717
  H        -5.5850475393        3.8400884281       -1.1385091472
  H        -5.2296094344        3.2334837715        0.6272033226
  H        -4.0431935558        4.2847896968       -0.2643634672
  C        -3.0889864338        1.7920993499        0.0190119196
  O        -2.0095744331        2.3386428704       -0.0052978855
  N        -3.4422531555        0.7684046514        0.8304963068
  H        -4.2308376369        0.1810027342        0.6689997944
  C        -2.6571255794        0.4977264163        1.9706575106
  H        -2.2521777034        1.4203297026        2.4135747245
  C        -3.3125025568       -0.2687295645        3.1348406685
  H        -3.9724272731        0.3882656527        3.7112529490
  H        -3.8033497851       -1.2193374440        2.7574334354
  H        -2.5469080212       -0.5593064761        3.8581884448
  C        -1.4961977794       -0.3057009922        1.4764243247
  O        -0.3854772028       -0.1877400251        1.9716863963
  N        -1.7464386474       -1.1728598289        0.4536765672
  H        -2.6700525177       -1.2025570295        0.0873220090
  C        -0.7998523516       -2.1389407919       -0.0342445696
  H        -0.5643807292       -2.7504973423        0.7832708696
  C        -1.4249070152       -2.9831207491       -1.1514802440
  H        -2.3569087173       -3.5312570156       -0.7591117092
  H        -1.6534713213       -2.3653113941       -2.0210118037
  H        -0.6749082005       -3.7792621859       -1.4403282713
  C         0.3640707816       -1.4448763289       -0.6110035664
  O         1.5198831164       -1.9226892540       -0.5049891983
  N         0.1156021722       -0.3352924518       -1.2478949772
  H        -0.8232452544       -0.0183712553       -1.3354966255
  C         1.1387148234        0.2965487850       -2.0589169082
  H         1.4571301654       -0.4624315408       -2.8023013983
  C         0.6270362872        1.5820272811       -2.7345985388
  H        -0.1523915879        1.3453606675       -3.4682954741
  H         0.2535677731        2.2535653586       -1.9472963195
  H         1.4465815692        2.0394563096       -3.3085146086
  C         2.2372921992        0.8191064477       -1.2332173119
  O         3.3078105930        1.0702071696       -1.7650717904
  N         1.9571377311        1.0960016918        0.0636229236
  H         1.0326043643        0.9710880057        0.4333366733
  C         2.8565865714        1.8389821247        0.9857099379
  H         3.2920688153        2.6513505214        0.4075139680
  C         2.2612245411        2.3574291680        2.3119062481
  H         1.5179952044        3.1576561781        2.1191231253
  H         1.7587214450        1.5927992993        2.8739924720
  H         3.0798501880        2.7492647029        3.0305560256
  C         3.9273353772        0.9080189207        1.3552118063
  O         4.9786872888        1.2749789275        1.8132136696
  N         3.6027408226       -0.4081951700        1.2619274272
  H         2.7745503734       -0.6236129883        0.7664566969
  C         4.4077931053       -1.4182775480        1.8499703550
  H         4.8178070769       -1.0817019234        2.8315271192
  C         3.7196056531       -2.7624228254        2.0069630259
  H         2.8107703602       -2.6160874927        2.5820702952
  H         3.4787913512       -3.2618861713        1.0604311797
  H         4.4115175478       -3.5290841850        2.4395733823
  C         5.5576057698       -1.7278156130        0.9464408461
  O         6.4766096460       -2.4135195500        1.2814532095
  N         5.3765430051       -1.2477609471       -0.3328772755
  H         4.6204668143       -0.6266541865       -0.5805763261
  C         6.3214567673       -1.6824658949       -1.3399595150
  H         6.6793244349       -2.6218161221       -1.0525643648
  C         5.7370202445       -1.7461130400       -2.7843100105
  H         4.9579171817       -2.4689244274       -2.7922961733
  H         5.3342107394       -0.7124745743       -3.0454318280
  H         6.5868572202       -1.9942078584       -3.4822370126
  C         7.4429371704       -0.7329428780       -1.5161172146
  O         8.2927685961       -0.9648030348       -2.3755091965
  C         9.1920102852        1.4009293326        0.4457204116
  O         8.8034461604        0.7033269817        1.3915872020
  O        10.2123437371        2.1356490867        0.4154575284
  N         7.4075905735        0.3845739314       -0.7563308671
  H         6.8688528351        0.4269396394        0.0797922290
  C         8.3335860795        1.4514091384       -0.8264970660
  H         8.9520560976        1.4265714978       -1.7161536061
  C         7.5977963967        2.7888470269       -0.6993577274
  H         6.9121735607        2.9453999402       -1.5247751485
  H         6.9981384795        2.8700628480        0.2149158960
  H         8.3420884148        3.6283407891       -0.6789504445
     103
 i =       40, time =       20.000, E =        -1.0110492511
  N        -8.5294809195       -0.1238837867        1.2942146490
  H        -9.3906287413        0.0198866940        1.8591556604
  H        -8.7352543790        0.0833121017        0.2913191620
  H        -7.8692008464        0.6162840945        1.5856849528
  C        -7.9068345894       -1.4287727531        1.4684096454
  H        -7.5602150827       -1.5006446576        2.4794396059
  C        -8.8153368556       -2.5444647200        0.9656728909
  H        -9.6997368528       -2.7109093077        1.6133632819
  H        -9.1490868430       -2.4679946235       -0.0782458989
  H        -8.3384633250       -3.5945785194        0.9855715513
  C        -6.7803506758       -1.1730080980        0.4907794518
  O        -5.5878463632       -1.0943978472        0.8628407994
  N        -7.0491070324       -0.9450113106       -0.8197980432
  H        -7.9727734555       -0.9799257933       -1.1728470379
  C        -6.0860316958       -1.0347214156       -1.8892147367
  H        -5.7246851015       -2.0094091126       -1.9601350361
  C        -6.6078718147       -0.6039731467       -3.2572643214
  H        -7.4019870400       -1.3203745815       -3.5963659960
  H        -7.0478788993        0.3856953518       -3.2315748963
  H        -5.8482737226       -0.5583890108       -4.0957080855
  C        -4.9298258620       -0.0630223576       -1.7049568141
  O        -3.8034908769       -0.3889788269       -2.0997252247
  N        -5.2039128096        1.1165290162       -1.1574865148
  H        -6.1514580649        1.3580784475       -1.0189013298
  C        -4.2343997243        2.1389132289       -0.9345689021
  H        -3.8376610678        2.4024539944       -1.9175349184
  C        -4.8278232524        3.4594733528       -0.3856046028
  H        -5.5158612057        3.8638036641       -1.1181348270
  H        -5.2252420133        3.3060251912        0.6317300302
  H        -4.0155059153        4.1865344958       -0.3292535245
  C        -3.1084755131        1.7680747920        0.0132856654
  O        -2.0070719492        2.3592884820        0.0258267801
  N        -3.4360939404        0.7703144785        0.8139493021
  H        -4.2260978020        0.1753599414        0.6412842867
  C        -2.6372321145        0.4978752774        1.9671756163
  H        -2.1860390112        1.3790042166        2.3673210640
  C        -3.3322066672       -0.2676414154        3.1425926437
  H        -3.9927284067        0.4569764045        3.6975791222
  H        -3.8423399272       -1.1631282566        2.8203769055
  H        -2.5577555119       -0.5743234994        3.9190539550
  C        -1.5153949118       -0.3194040089        1.4689153341
  O        -0.3985533596       -0.1983587016        1.9661312415
  N        -1.7588281589       -1.1904495771        0.4665870300
  H        -2.6455193365       -1.1761256027        0.0158749093